{
  "Hidrogênio": {
    "name": "Hidrogênio",
    "symbol": "H",
    "atomicNumber": 1,
    "atomicMass": 1.008,
    "group": 1,
    "period": 1,
    "category": "Não metal",
    "density": 0.00008988,
    "meltingPoint": -259.14,
    "boilingPoint": -252.87
  },
  "Hélio": {
    "name": "Hélio",
    "symbol": "He",
    "atomicNumber": 2,
    "atomicMass": 4.003,
    "group": 18,
    "period": 1,
    "category": "Gás nobre",
    "density": 0.0001785,
    "meltingPoint": -272.2,
    "boilingPoint": -268.9
  },
  "Lítio": {
    "name": "Lítio",
    "symbol": "Li",
    "atomicNumber": 3,
    "atomicMass": 6.941,
    "group": 1,
    "period": 2,
    "category": "Metal alcalino",
    "density": 0.534,
    "meltingPoint": 180.54,
    "boilingPoint": 1347
  },
  "Berílio": {
    "name": "Berílio",
    "symbol": "Be",
    "atomicNumber": 4,
    "atomicMass": 9.012,
    "group": 2,
    "period": 2,
    "category": "Metal alcalino-terroso",
    "density": 1.85,
    "meltingPoint": 1287,
    "boilingPoint": 2471
  },
  "Boro": {
    "name": "Boro",
    "symbol": "B",
    "atomicNumber": 5,
    "atomicMass": 10.81,
    "group": 13,
    "period": 2,
    "category": "Semimetal",
    "density": 2.46,
    "meltingPoint": 2075,
    "boilingPoint": 4000
  },
  "Carbono": {
    "name": "Carbono",
    "symbol": "C",
    "atomicNumber": 6,
    "atomicMass": 12.01,
    "group": 14,
    "period": 2,
    "category": "Não metal",
    "density": 2.267,
    "meltingPoint": 3500,
    "boilingPoint": 4827
  },
  "Nitrogênio": {
    "name": "Nitrogênio",
    "symbol": "N",
    "atomicNumber": 7,
    "atomicMass": 14.01,
    "group": 15,
    "period": 2,
    "category": "Não metal",
    "density": 0.0012506,
    "meltingPoint": -210.01,
    "boilingPoint": -195.79
  },
  "Oxigênio": {
    "name": "Oxigênio",
    "symbol": "O",
    "atomicNumber": 8,
    "atomicMass": 15.999,
    "group": 16,
    "period": 2,
    "category": "Não metal",
    "density": 0.001429,
    "meltingPoint": -218.79,
    "boilingPoint": -182.96
  },
  "Flúor": {
    "name": "Flúor",
    "symbol": "F",
    "atomicNumber": 9,
    "atomicMass": 18.998,
    "group": 17,
    "period": 2,
    "category": "Halogênio",
    "density": 0.001696,
    "meltingPoint": -219.62,
    "boilingPoint": -188.14
  },
  "Neônio": {
    "name": "Neônio",
    "symbol": "Ne",
    "atomicNumber": 10,
    "atomicMass": 20.18,
    "group": 18,
    "period": 2,
    "category": "Gás nobre",
    "density": 0.0008999,
    "meltingPoint": -248.59,
    "boilingPoint": -246.08
  },
  "Sódio": {
    "name": "Sódio",
    "symbol": "Na",
    "atomicNumber": 11,
    "atomicMass": 22.99,
    "group": 1,
    "period": 3,
    "category": "Metal alcalino",
    "density": 0.971,
    "meltingPoint": 97.81,
    "boilingPoint": 883
  },
  "Magnésio": {
    "name": "Magnésio",
    "symbol": "Mg",
    "atomicNumber": 12,
    "atomicMass": 24.31,
    "group": 2,
    "period": 3,
    "category": "Metal alcalino-terroso",
    "density": 1.738,
    "meltingPoint": 650,
    "boilingPoint": 1090
  },
  "Alumínio": {
    "name": "Alumínio",
    "symbol": "Al",
    "atomicNumber": 13,
    "atomicMass": 26.98,
    "group": 13,
    "period": 3,
    "category": "Metal",
    "density": 2.7,
    "meltingPoint": 660.32,
    "boilingPoint": 2519
  },
  "Silício": {
    "name": "Silício",
    "symbol": "Si",
    "atomicNumber": 14,
    "atomicMass": 28.09,
    "group": 14,
    "period": 3,
    "category": "Semimetal",
    "density": 2.3296,
    "meltingPoint": 1414,
    "boilingPoint": 2900
  },
  "Fósforo": {
    "name": "Fósforo",
    "symbol": "P",
    "atomicNumber": 15,
    "atomicMass": 30.974,
    "group": 15,
    "period": 3,
    "category": "Não metal",
    "density": 1.82,
    "meltingPoint": 44.15,
    "boilingPoint": 280.5
  },
  "Enxofre": {
    "name": "Enxofre",
    "symbol": "S",
    "atomicNumber": 16,
    "atomicMass": 32.06,
    "group": 16,
    "period": 3,
    "category": "Não metal",
    "density": 2.067,
    "meltingPoint": 115.21,
    "boilingPoint": 444.72
  },
  "Cloro": {
    "name": "Cloro",
    "symbol": "Cl",
    "atomicNumber": 17,
    "atomicMass": 35.45,
    "group": 17,
    "period": 3,
    "category": "Halogênio",
    "density": 0.003214,
    "meltingPoint": -101.5,
    "boilingPoint": -34.04
  },
  "Argônio": {
    "name": "Argônio",
    "symbol": "Ar",
    "atomicNumber": 18,
    "atomicMass": 39.95,
    "group": 18,
    "period": 3,
    "category": "Gás nobre",
    "density": 0.0017837,
    "meltingPoint": -189.34,
    "boilingPoint": -185.85
  },
  "Potássio": {
    "name": "Potássio",
    "symbol": "K",
    "atomicNumber": 19,
    "atomicMass": 39.098,
    "group": 1,
    "period": 4,
    "category": "Metal alcalino",
    "density": 0.862,
    "meltingPoint": 63.38,
    "boilingPoint": 759
  },
  "Cálcio": {
    "name": "Cálcio",
    "symbol": "Ca",
    "atomicNumber": 20,
    "atomicMass": 40.08,
    "group": 2,
    "period": 4,
    "category": "Metal alcalino-terroso",
    "density": 1.54,
    "meltingPoint": 842,
    "boilingPoint": 1484
  },
  "Escândio": {
    "name": "Escândio",
    "symbol": "Sc",
    "atomicNumber": 21,
    "atomicMass": 44.96,
    "group": 3,
    "period": 4,
    "category": "Metal de transição",
    "density": 2.98,
    "meltingPoint": 1541,
    "boilingPoint": 2836
  },
  "Titânio": {
    "name": "Titânio",
    "symbol": "Ti",
    "atomicNumber": 22,
    "atomicMass": 47.87,
    "group": 4,
    "period": 4,
    "category": "Metal de transição",
    "density": 4.54,
    "meltingPoint": 1668,
    "boilingPoint": 3287
  },
  "Vanádio": {
    "name": "Vanádio",
    "symbol": "V",
    "atomicNumber": 23,
    "atomicMass": 50.94,
    "group": 5,
    "period": 4,
    "category": "Metal de transição",
    "density": 6.11,
    "meltingPoint": 1910,
    "boilingPoint": 3407
  },
  "Cromo": {
    "name": "Cromo",
    "symbol": "Cr",
    "atomicNumber": 24,
    "atomicMass": 52.00,
    "group": 6,
    "period": 4,
    "category": "Metal de transição",
    "density": 7.15,
    "meltingPoint": 1907,
    "boilingPoint": 2671
  },
  "Manganês": {
    "name": "Manganês",
    "symbol": "Mn",
    "atomicNumber": 25,
    "atomicMass": 54.94,
    "group": 7,
    "period": 4,
    "category": "Metal de transição",
    "density": 7.3,
    "meltingPoint": 1246,
    "boilingPoint": 2061
  },
  "Ferro": {
    "name": "Ferro",
    "symbol": "Fe",
    "atomicNumber": 26,
    "atomicMass": 55.85,
    "group": 8,
    "period": 4,
    "category": "Metal de transição",
    "density": 7.87,
    "meltingPoint": 1538,
    "boilingPoint": 2862
  },
  "Cobalto": {
    "name": "Cobalto",
    "symbol": "Co",
    "atomicNumber": 27,
    "atomicMass": 58.93,
    "group": 9,
    "period": 4,
    "category": "Metal de transição",
    "density": 8.86,
    "meltingPoint": 1495,
    "boilingPoint": 2927
  },
  "Níquel": {
    "name": "Níquel",
    "symbol": "Ni",
    "atomicNumber": 28,
    "atomicMass": 58.69,
    "group": 10,
    "period": 4,
    "category": "Metal de transição",
    "density": 8.91,
    "meltingPoint": 1455,
    "boilingPoint": 2913
  },
  "Cobre": {
    "name": "Cobre",
    "symbol": "Cu",
    "atomicNumber": 29,
    "atomicMass": 63.55,
    "group": 11,
    "period": 4,
    "category": "Metal de transição",
    "density": 8.96,
    "meltingPoint": 1083,
    "boilingPoint": 2567
  },
  "Zinco": {
    "name": "Zinco",
    "symbol": "Zn",
    "atomicNumber": 30,
    "atomicMass": 65.38,
    "group": 12,
    "period": 4,
    "category": "Metal de transição",
    "density": 7.14,
    "meltingPoint": 419,
    "boilingPoint": 907
  },
  "Gálio": {
    "name": "Gálio",
    "symbol": "Ga",
    "atomicNumber": 31,
    "atomicMass": 69.72,
    "group": 13,
    "period": 4,
    "category": "Metal",
    "density": 5.91,
    "meltingPoint": 303,
    "boilingPoint": 2477
  },
  "Germanio": {
    "name": "Germanio",
    "symbol": "Ge",
    "atomicNumber": 32,
    "atomicMass": 72.63,
    "group": 14,
    "period": 4,
    "category": "Semimetal",
    "density": 5.32,
    "meltingPoint": 1211,
    "boilingPoint": 3093
  },
  "Arsênio": {
    "name": "Arsênio",
    "symbol": "As",
    "atomicNumber": 33,
    "atomicMass": 74.92,
    "group": 15,
    "period": 4,
    "category": "Semimetal",
    "density": 5.73,
    "meltingPoint": 817,
    "boilingPoint": 613
  },
  "Selênio": {
    "name": "Selênio",
    "symbol": "Se",
    "atomicNumber": 34,
    "atomicMass": 78.96,
    "group": 16,
    "period": 4,
    "category": "Não metal",
    "density": 4.81,
    "meltingPoint": 221,
    "boilingPoint": 685
  },
  "Bromo": {
    "name": "Bromo",
    "symbol": "Br",
    "atomicNumber": 35,
    "atomicMass": 79.90,
    "group": 17,
    "period": 4,
    "category": "Halogenio",
    "density": 3.14,
    "meltingPoint": 266,
    "boilingPoint": 332
  },
  "Criptônio": {
    "name": "Criptônio",
    "symbol": "Kr",
    "atomicNumber": 36,
    "atomicMass": 83.80,
    "group": 18,
    "period": 4,
    "category": "Gás nobre",
    "density": 0.003733,
    "meltingPoint": 116,
    "boilingPoint": 120
  },
  "Rubídio": {
    "name": "Rubídio",
    "symbol": "Rb",
    "atomicNumber": 37,
    "atomicMass": 85.47,
    "group": 1,
    "period": 5,
    "category": "Metal alcalino",
    "density": 1.53,
    "meltingPoint": 312,
    "boilingPoint": 961
  },
  "Estrôncio": {
    "name": "Estrôncio",
    "symbol": "Sr",
    "atomicNumber": 38,
    "atomicMass": 87.62,
    "group": 2,
    "period": 5,
    "category": "Metal alcalino-terroso",
    "density": 2.64,
    "meltingPoint": 1050,
    "boilingPoint": 1655
  },
  "Ítrio": {
    "name": "Ítrio",
    "symbol": "Y",
    "atomicNumber": 39,
    "atomicMass": 88.91,
    "group": 3,
    "period": 5,
    "category": "Metal de transição",
    "density": 4.47,
    "meltingPoint": 1799,
    "boilingPoint": 3609
  },
  "Zircônio": {
    "name": "Zircônio",
    "symbol": "Zr",
    "atomicNumber": 40,
    "atomicMass": 91.22,
    "group": 4,
    "period": 5,
    "category": "Metal de transição",
    "density": 6.51,
    "meltingPoint": 2128,
    "boilingPoint": 4682
  },
  "Nióbio": {
    "name": "Nióbio",
    "symbol": "Nb",
    "atomicNumber": 41,
    "atomicMass": 92.91,
    "group": 5,
    "period": 5,
    "category": "Metal de transição",
    "density": 8.57,
    "meltingPoint": 2750,
    "boilingPoint": 5017
  },
  "Molibdênio": {
    "name": "Molibdênio",
    "symbol": "Mo",
    "atomicNumber": 42,
    "atomicMass": 95.94,
    "group": 6,
    "period": 5,
    "category": "Metal de transição",
    "density": 10.22,
    "meltingPoint": 2896,
    "boilingPoint": 4912
  },
  "Tecnécio": {
    "name": "Tecnécio",
    "symbol": "Tc",
    "atomicNumber": 43,
    "atomicMass": 98.00,
    "group": 7,
    "period": 5,
    "category": "Metal de transição",
    "density": 11.5,
    "meltingPoint": 2430,
    "boilingPoint": 4538
  },
  "Rutênio": {
    "name": "Rutênio",
    "symbol": "Ru",
    "atomicNumber": 44,
    "atomicMass": 101.07,
    "group": 8,
    "period": 5,
    "category": "Metal de transição",
    "density": 12.45,
    "meltingPoint": 2607,
    "boilingPoint": 4423
  },
  "Ródio": {
    "name": "Ródio",
    "symbol": "Rh",
    "atomicNumber": 45,
    "atomicMass": 102.91,
    "group": 9,
    "period": 5,
    "category": "Metal de transição",
    "density": 12.41,
    "meltingPoint": 2239,
    "boilingPoint": 3968
  },
  "Paládio": {
    "name": "Paládio",
    "symbol": "Pd",
    "atomicNumber": 46,
    "atomicMass": 106.42,
    "group": 10,
    "period": 5,
    "category": "Metal de transição",
    "density": 12.02,
    "meltingPoint": 1828.05,
    "boilingPoint": 3236
  },
  "Prata": {
    "name": "Prata",
    "symbol": "Ag",
    "atomicNumber": 47,
    "atomicMass": 107.87,
    "group": 11,
    "period": 5,
    "category": "Metal de transição",
    "density": 10.49,
    "meltingPoint": 1234.93,
    "boilingPoint": 2435
  },
  "Cádmio": {
    "name": "Cádmio",
    "symbol": "Cd",
    "atomicNumber": 48,
    "atomicMass": 112.41,
    "group": 12,
    "period": 5,
    "category": "Metal de transição",
    "density": 8.65,
    "meltingPoint": 594.22,
    "boilingPoint": 1040
  },
  "Índio": {
    "name": "Índio",
    "symbol": "In",
    "atomicNumber": 49,
    "atomicMass": 114.82,
    "group": 13,
    "period": 5,
    "category": "Metal",
    "density": 7.31,
    "meltingPoint": 429.75,
    "boilingPoint": 2345
  },
  "Estanho": {
    "name": "Estanho",
    "symbol": "Sn",
    "atomicNumber": 50,
    "atomicMass": 118.71,
    "group": 14,
    "period": 5,
    "category": "Metal",
    "density": 7.31,
    "meltingPoint": 505.08,
    "boilingPoint": 2875
  },
  "Antimônio": {
    "name": "Antimônio",
    "symbol": "Sb",
    "atomicNumber": 51,
    "atomicMass": 121.76,
    "group": 15,
    "period": 5,
    "category": "Metaloide",
    "density": 6.68,
    "meltingPoint": 903.78,
    "boilingPoint": 1860
  },
  "Telúrio": {
    "name": "Telúrio",
    "symbol": "Te",
    "atomicNumber": 52,
    "atomicMass": 127.6,
    "group": 16,
    "period": 5,
    "category": "Metaloide",
    "density": 6.24,
    "meltingPoint": 722.72,
    "boilingPoint": 1261
  },
  "Iodo": {
    "name": "Iodo",
    "symbol": "I",
    "atomicNumber": 53,
    "atomicMass": 126.9,
    "group": 17,
    "period": 5,
    "category": "Halogênio",
    "density": 4.93,
    "meltingPoint": 386.85,
    "boilingPoint": 457.4
  },
  "Xenônio": {
    "name": "Xenônio",
    "symbol": "Xe",
    "atomicNumber": 54,
    "atomicMass": 131.29,
    "group": 18,
    "period": 5,
    "category": "Gás nobre",
    "density": 0.005887,
    "meltingPoint": 161.36,
    "boilingPoint": 165.03
  },
  "Césio": {
    "name": "Césio",
    "symbol": "Cs",
    "atomicNumber": 55,
    "atomicMass": 132.91,
    "group": 1,
    "period": 6,
    "category": "Metal alcalino",
    "density": 1.93,
    "meltingPoint": 301.59,
    "boilingPoint": 944
  },
  "Bário": {
    "name": "Bário",
    "symbol": "Ba",
    "atomicNumber": 56,
    "atomicMass": 137.33,
    "group": 2,
    "period": 6,
    "category": "Metal alcalino-terroso",
    "density": 3.51,
    "meltingPoint": 1002.0,
    "boilingPoint": 2170
  },
  "Lantânio": {
    "name": "Lantânio",
    "symbol": "La",
    "atomicNumber": 57,
    "atomicMass": 138.91,
    "group": 3,
    "period": 6,
    "category": "Lantanídeo",
    "density": 6.15,
    "meltingPoint": 1193.0,
    "boilingPoint": 3737
  },
  "Cério": {
    "name": "Cério",
    "symbol": "Ce",
    "atomicNumber": 58,
    "atomicMass": 140.12,
    "group": 3,
    "period": 6,
    "category": "Lantanídeo",
    "density": 6.77,
    "meltingPoint": 1071.0,
    "boilingPoint": 3697
  },
  "Praseodímio": {
    "name": "Praseodímio",
    "symbol": "Pr",
    "atomicNumber": 59,
    "atomicMass": 140.91,
    "group": 3,
    "period": 6,
    "category": "Lantanídeo",
    "density": 6.48,
    "meltingPoint": 1204.0,
    "boilingPoint": 3793
  },
  "Neodímio": {
    "name": "Neodímio",
    "symbol": "Nd",
    "atomicNumber": 60,
    "atomicMass": 144.24,
    "group": 3,
    "period": 6,
    "category": "Lantanídeo",
    "density": 7.01,
    "meltingPoint": 1294.0,
    "boilingPoint": 3347
  },
  "Promécio": {
    "name": "Promécio",
    "symbol": "Pm",
    "atomicNumber": 61,
    "atomicMass": 145.0,
    "group": 3,
    "period": 6,
    "category": "Lantanídeo",
    "density": 7.26,
    "meltingPoint": 1315.0,
    "boilingPoint": 3273
  },
  "Samário": {
    "name": "Samário",
    "symbol": "Sm",
    "atomicNumber": 62,
    "atomicMass": 150.36,
    "group": 3,
    "period": 6,
    "category": "Lantanídeo",
    "density": 7.52,
    "meltingPoint": 1345.0,
    "boilingPoint": 2067
  },
  "Európio": {
    "name": "Európio",
    "symbol": "Eu",
    "atomicNumber": 63,
    "atomicMass": 151.96,
    "group": 3,
    "period": 6,
    "category": "Lantanídeo",
    "density": 5.24,
    "meltingPoint": 1095.0,
    "boilingPoint": 1800
  },
  "Gadolínio": {
    "name": "Gadolínio",
    "symbol": "Gd",
    "atomicNumber": 64,
    "atomicMass": 157.25,
    "group": 3,
    "period": 6,
    "category": "Lantanídeo",
    "density": 7.9,
    "meltingPoint": 1586.0,
    "boilingPoint": 3546
  },
  "Térbio": {
    "name": "Térbio",
    "symbol": "Tb",
    "atomicNumber": 65,
    "atomicMass": 158.93,
    "group": 3,
    "period": 6,
    "category": "Lantanídeo",
    "density": 8.23,
    "meltingPoint": 1629.0,
    "boilingPoint": 3503
  },
  "Disprósio": {
    "name": "Disprósio",
    "symbol": "Dy",
    "atomicNumber": 66,
    "atomicMass": 162.5,
    "group": 3,
    "period": 6,
    "category": "Lantanídeo",
    "density": 8.55,
    "meltingPoint": 1685.0,
    "boilingPoint": 2840
  },
  "Hólmio": {
    "name": "Hólmio",
    "symbol": "Ho",
    "atomicNumber": 67,
    "atomicMass": 164.93,
    "group": 3,
    "period": 6,
    "category": "Lantanídeo",
    "density": 8.8,
    "meltingPoint": 1734.0,
    "boilingPoint": 2993
  },
  "Érbio": {
    "name": "Érbio",
    "symbol": "Er",
    "atomicNumber": 68,
    "atomicMass": 167.26,
    "group": 3,
    "period": 6,
    "category": "Lantanídeo",
    "density": 9.07,
    "meltingPoint": 1802.0,
    "boilingPoint": 3141
  },
  "Túlio": {
    "name": "Túlio",
    "symbol": "Tm",
    "atomicNumber": 69,
    "atomicMass": 168.93,
    "group": 3,
    "period": 6,
    "category": "Lantanídeo",
    "density": 9.32,
    "meltingPoint": 1818.0,
    "boilingPoint": 2223
  },
  "Itérbio": {
    "name": "Itérbio",
    "symbol": "Yb",
    "atomicNumber": 70,
    "atomicMass": 173.05,
    "group": 3,
    "period": 6,
    "category": "Lantanídeo",
    "density": 6.9,
    "meltingPoint": 1092.0,
    "boilingPoint": 1469
  },
  "Lutécio": {
    "name": "Lutécio",
    "symbol": "Lu",
    "atomicNumber": 71,
    "atomicMass": 174.97,
    "group": 3,
    "period": 6,
    "category": "Lantanídeo",
    "density": 9.84,
    "meltingPoint": 1936.0,
    "boilingPoint": 3675
  },
  "Háfnio": {
    "name": "Háfnio",
    "symbol": "Hf",
    "atomicNumber": 72,
    "atomicMass": 178.49,
    "group": 4,
    "period": 6,
    "category": "Metal de transição",
    "density": 13.31,
    "meltingPoint": 2506.0,
    "boilingPoint": 4876
  },
  "Tântalo": {
    "name": "Tântalo",
    "symbol": "Ta",
    "atomicNumber": 73,
    "atomicMass": 180.95,
    "group": 5,
    "period": 6,
    "category": "Metal de transição",
    "density": 16.65,
    "meltingPoint": 3290.0,
    "boilingPoint": 5731
  },
  "Tungstênio": {
    "name": "Tungstênio",
    "symbol": "W",
    "atomicNumber": 74,
    "atomicMass": 183.84,
    "group": 6,
    "period": 6,
    "category": "Metal de transição",
    "density": 19.3,
    "meltingPoint": 3695.0,
    "boilingPoint": 5828
  },
  "Rênio": {
    "name": "Rênio",
    "symbol": "Re",
    "atomicNumber": 75,
    "atomicMass": 186.21,
    "group": 7,
    "period": 6,
    "category": "Metal de transição",
    "density": 21.02,
    "meltingPoint": 3459.0,
    "boilingPoint": 5869
  },
  "Ósmio": {
    "name": "Ósmio",
    "symbol": "Os",
    "atomicNumber": 76,
    "atomicMass": 190.23,
    "group": 8,
    "period": 6,
    "category": "Metal de transição",
    "density": 22.61,
    "meltingPoint": 3306.0,
    "boilingPoint": 5285
  },
  "Irídio": {
    "name": "Irídio",
    "symbol": "Ir",
    "atomicNumber": 77,
    "atomicMass": 192.22,
    "group": 9,
    "period": 6,
    "category": "Metal de transição",
    "density": 22.56,
    "meltingPoint": 2720.0,
    "boilingPoint": 4403
  },
  "Platina": {
    "name": "Platina",
    "symbol": "Pt",
    "atomicNumber": 78,
    "atomicMass": 195.08,
    "group": 10,
    "period": 6,
    "category": "Metal de transição",
    "density": 21.45,
    "meltingPoint": 2041.4,
    "boilingPoint": 4098
  },
  "Ouro": {
    "name": "Ouro",
    "symbol": "Au",
    "atomicNumber": 79,
    "atomicMass": 196.97,
    "group": 11,
    "period": 6,
    "category": "Metal de transição",
    "density": 19.3,
    "meltingPoint": 1337.33,
    "boilingPoint": 3129
  },
  "Mercúrio": {
    "name": "Mercúrio",
    "symbol": "Hg",
    "atomicNumber": 80,
    "atomicMass": 200.59,
    "group": 12,
    "period": 6,
    "category": "Metal de transição",
    "density": 13.53,
    "meltingPoint": 234.43,
    "boilingPoint": 629.88
  },
  "Tálio": {
    "name": "Tálio",
    "symbol": "Tl",
    "atomicNumber": 81,
    "atomicMass": 204.38,
    "group": 13,
    "period": 6,
    "category": "Metal",
    "density": 11.85,
    "meltingPoint": 577.0,
    "boilingPoint": 1746
  },
  "Chumbo": {
    "name": "Chumbo",
    "symbol": "Pb",
    "atomicNumber": 82,
    "atomicMass": 207.2,
    "group": 14,
    "period": 6,
    "category": "Metal",
    "density": 11.34,
    "meltingPoint": 600.61,
    "boilingPoint": 2022
  },
  "Bismuto": {
    "name": "Bismuto",
    "symbol": "Bi",
    "atomicNumber": 83,
    "atomicMass": 208.98,
    "group": 15,
    "period": 6,
    "category": "Metal",
    "density": 9.78,
    "meltingPoint": 544.55,
    "boilingPoint": 1837
  },
  "Polônio": {
    "name": "Polônio",
    "symbol": "Po",
    "atomicNumber": 84,
    "atomicMass": 209.0,
    "group": 16,
    "period": 6,
    "category": "Metaloide",
    "density": 9.32,
    "meltingPoint": 527.0,
    "boilingPoint": 1235
  },
  "Astato": {
    "name": "Astato",
    "symbol": "At",
    "atomicNumber": 85,
    "atomicMass": 210.0,
    "group": 17,
    "period": 6,
    "category": "Halogenio",
    "density": 7.0,
    "meltingPoint": 575.0,
    "boilingPoint": 610
  },
  "Radônio": {
    "name": "Radônio",
    "symbol": "Rn",
    "atomicNumber": 86,
    "atomicMass": 222.0,
    "group": 18,
    "period": 6,
    "category": "Gas nobre",
    "density": 0.00973,
    "meltingPoint": 202.0,
    "boilingPoint": 211.4
  },
  "Francio": {
    "name": "Francio",
    "symbol": "Fr",
    "atomicNumber": 87,
    "atomicMass": 223.0,
    "group": 1,
    "period": 7,
    "category": "Metal alcalino",
    "density": 1.87,
    "meltingPoint": 300.0,
    "boilingPoint": 950
  },
  "Rádio": {
    "name": "Rádio",
    "symbol": "Ra",
    "atomicNumber": 88,
    "atomicMass": 226.03,
    "group": 2,
    "period": 7,
    "category": "Metal alcalino-terroso",
    "density": 5.0,
    "meltingPoint": 973.0,
    "boilingPoint": 2010
  },
  "Actínio": {
    "name": "Actínio",
    "symbol": "Ac",
    "atomicNumber": 89,
    "atomicMass": 227.03,
    "group": 0,
    "period": 7,
    "category": "Actinídeo",
    "density": 10.07,
    "meltingPoint": 1323.0,
    "boilingPoint": 3471
  },
  "Tório": {
    "name": "Tório",
    "symbol": "Th",
    "atomicNumber": 90,
    "atomicMass": 232.04,
    "group": 0,
    "period": 7,
    "category": "Actinídeo",
    "density": 11.72,
    "meltingPoint": 2115.0,
    "boilingPoint": 5061
  },
  "Protactínio": {
    "name": "Protactínio",
    "symbol": "Pa",
    "atomicNumber": 91,
    "atomicMass": 231.04,
    "group": 0,
    "period": 7,
    "category": "Actinídeo",
    "density": 15.37,
    "meltingPoint": 1841.0,
    "boilingPoint": 4300
  },
  "Urânio": {
    "name": "Urânio",
    "symbol": "U",
    "atomicNumber": 92,
    "atomicMass": 238.03,
    "group": 0,
    "period": 7,
    "category": "Actinídeo",
    "density": 18.95,
    "meltingPoint": 1408.0,
    "boilingPoint": 4404
  },
  "Netúnio": {
    "name": "Netúnio",
    "symbol": "Np",
    "atomicNumber": 93,
    "atomicMass": 237.05,
    "group": 0,
    "period": 7,
    "category": "Actinídeo",
    "density": 20.45,
    "meltingPoint": 917.0,
    "boilingPoint": 4273
  },
  "Plutônio": {
    "name": "Plutônio",
    "symbol": "Pu",
    "atomicNumber": 94,
    "atomicMass": 244.06,
    "group": 0,
    "period": 7,
    "category": "Actinídeo",
    "density": 19.84,
    "meltingPoint": 913.0,
    "boilingPoint": 3501
  },
  "Amerício": {
    "name": "Amerício",
    "symbol": "Am",
    "atomicNumber": 95,
    "atomicMass": 243.06,
    "group": 0,
    "period": 7,
    "category": "Actinídeo",
    "density": 13.67,
    "meltingPoint": 1449.0,
    "boilingPoint": 2284
  },
  "Cúrio": {
    "name": "Cúrio",
    "symbol": "Cm",
    "atomicNumber": 96,
    "atomicMass": 247.07,
    "group": 0,
    "period": 7,
    "category": "Actinídeo",
    "density": 13.51,
    "meltingPoint": 1618.0,
    "boilingPoint": 3383
  },
  "Berquélio": {
    "name": "Berquélio",
    "symbol": "Bk",
    "atomicNumber": 97,
    "atomicMass": 247.07,
    "group": 0,
    "period": 7,
    "category": "Actinídeo",
    "density": 14.79,
    "meltingPoint": 1323.0,
    "boilingPoint": 2900
  },
  "Califórnio": {
    "name": "Califórnio",
    "symbol": "Cf",
    "atomicNumber": 98,
    "atomicMass": 251.08,
    "group": 0,
    "period": 7,
    "category": "Actinídeo",
    "density": 15.1,
    "meltingPoint": 1173.0,
    "boilingPoint": 1743
  },
  "Einstênio": {
    "name": "Einstênio",
    "symbol": "Es",
    "atomicNumber": 99,
    "atomicMass": 252.08,
    "group": 0,
    "period": 7,
    "category": "Actinídeo",
    "density": 8.84,
    "meltingPoint": 1133.0,
    "boilingPoint": 1269
  },
  "Férmio": {
    "name": "Férmio",
    "symbol": "Fm",
    "atomicNumber": 100,
    "atomicMass": 257.1,
    "group": 0,
    "period": 7,
    "category": "Actinídeo",
    "density": 9.7,
    "meltingPoint": 1800.0,
    "boilingPoint": null
  },
  "Mendelévio": {
    "name": "Mendelévio",
    "symbol": "Md",
    "atomicNumber": 101,
    "atomicMass": 258.0,
    "group": 0,
    "period": 7,
    "category": "Actinídeo",
    "density": 10.0,
    "meltingPoint": 1100.0,
    "boilingPoint": 1100.0
  },
  "Nobélio": {
    "name": "Nobélio",
    "symbol": "No",
    "atomicNumber": 102,
    "atomicMass": 259.0,
    "group": 0,
    "period": 7,
    "category": "Actinídeo",
    "density": 9.9,
    "meltingPoint": 1100.0,
    "boilingPoint": null
  },
  "Laurêncio": {
    "name": "Laurêncio",
    "symbol": "Lr",
    "atomicNumber": 103,
    "atomicMass": 262.0,
    "group": 3,
    "period": 7,
    "category": "Metal de transição",
    "density": 16.4,
    "meltingPoint": 1900.0,
    "boilingPoint": null
  },
  "Rutherfórdio": {
    "name": "Rutherfórdio",
    "symbol": "Rf",
    "atomicNumber": 104,
    "atomicMass": 267.0,
    "group": 4,
    "period": 7,
    "category": "Metal de transição",
    "density": 23.2,
    "meltingPoint": 2400.0,
    "boilingPoint": null
  },
  "Dubnío": {
    "name": "Dubnío",
    "symbol": "Db",
    "atomicNumber": 105,
    "atomicMass": 270.0,
    "group": 5,
    "period": 7,
    "category": "Metal de transição",
    "density": 29.3,
    "meltingPoint": null,
    "boilingPoint": null
  },
  "Seabórgio": {
    "name": "Seabórgio",
    "symbol": "Sg",
    "atomicNumber": 106,
    "atomicMass": 271.0,
    "group": 6,
    "period": 7,
    "category": "Metal de transição",
    "density": 35.0,
    "meltingPoint": 1200.0,
    "boilingPoint": null
  },
  "Bóhrio": {
    "name": "Bóhrio",
    "symbol": "Bh",
    "atomicNumber": 107,
    "atomicMass": 270.0,
    "group": 7,
    "period": 7,
    "category": "Metal de transição",
    "density": 37.1,
    "meltingPoint": null,
    "boilingPoint": null
  },
  "Hássio": {
    "name": "Hássio",
    "symbol": "Hs",
    "atomicNumber": 108,
    "atomicMass": 277.0,
    "group": 8,
    "period": 7,
    "category": "Metal de transição",
    "density": 41.0,
    "meltingPoint": null,
    "boilingPoint": null
  },
  "Meitnério": {
    "name": "Meitnério",
    "symbol": "Mt",
    "atomicNumber": 109,
    "atomicMass": 278.0,
    "group": 9,
    "period": 7,
    "category": "Metal de transição",
    "density": 37.4,
    "meltingPoint": null,
    "boilingPoint": null
  },
  "Darmstádtio": {
    "name": "Darmstádtio",
    "symbol": "Ds",
    "atomicNumber": 110,
    "atomicMass": 281.0,
    "group": 10,
    "period": 7,
    "category": "Metal de transição",
    "density": 34.8,
    "meltingPoint": null,
    "boilingPoint": null
  },
  "Roentgênio": {
    "name": "Roentgênio",
    "symbol": "Rg",
    "atomicNumber": 111,
    "atomicMass": 282.0,
    "group": 11,
    "period": 7,
    "category": "Metal de transição",
    "density": 28.7,
    "meltingPoint": null,
    "boilingPoint": null
  },
  "Copernício": {
    "name": "Copernício",
    "symbol": "Cn",
    "atomicNumber": 112,
    "atomicMass": 285.0,
    "group": 12,
    "period": 7,
    "category": "Metal de transição",
    "density": 23.7,
    "meltingPoint": null,
    "boilingPoint": null
  },
  "Nihônio": {
    "name": "Nihônio",
    "symbol": "Nh",
    "atomicNumber": 113,
    "atomicMass": 284.0,
    "group": 13,
    "period": 7,
    "category": "Metal pesado",
    "density": null,
    "meltingPoint": null,
    "boilingPoint": null
  },
  "Fleróvio": {
    "name": "Fleróvio",
    "symbol": "Fl",
    "atomicNumber": 114,
    "atomicMass": 289.0,
    "group": 14,
    "period": 7,
    "category": "Metal pesado",
    "density": null,
    "meltingPoint": null,
    "boilingPoint": null
  },
  "Moscóvio": {
    "name": "Moscóvio",
    "symbol": "Mc",
    "atomicNumber": 115,
    "atomicMass": 288.0,
    "group": 15,
    "period": 7,
    "category": "Metal pesado",
    "density": null,
    "meltingPoint": null,
    "boilingPoint": null
  },
  "Livermório": {
    "name": "Livermório",
    "symbol": "Lv",
    "atomicNumber": 116,
    "atomicMass": 292.0,
    "group": 16,
    "period": 7,
    "category": "Metal pesado",
    "density": null,
    "meltingPoint": null,
    "boilingPoint": null
  },
  "Tenessino": {
    "name": "Tenessino",
    "symbol": "Ts",
    "atomicNumber": 117,
    "atomicMass": 295.0,
    "group": 17,
    "period": 7,
    "category": "Halogeneto",
    "density": null,
    "meltingPoint": null,
    "boilingPoint": null
  },
  "Oganessônio": {
    "name": "Oganessônio",
    "symbol": "Og",
    "atomicNumber": 118,
    "atomicMass": 294.0,
    "group": 18,
    "period": 7,
    "category": "Gás nobre",
    "density": null,
    "meltingPoint": null,
    "boilingPoint": null
  }
}
